 Entering Gaussian System, Link 0=c:\g09w\g09.exe
 Input=env.gjf
 Output=c:\Users\Matteus\Research\msqc\ethane2\env.out
 Initial command:
 c:\g09w\l1.exe .\gxx.inp c:\Users\Matteus\Research\msqc\ethane2\env.out /scrdir=.\
 Entering Link 1 = c:\g09w\l1.exe PID=     10868.
  
 Copyright (c) 1988,1990,1992,1993,1995,1998,2003,2009, Gaussian, Inc.
                  All Rights Reserved.
  
 This is part of the Gaussian(R) 09 program.  It is based on
 the Gaussian(R) 03 system (copyright 2003, Gaussian, Inc.),
 the Gaussian(R) 98 system (copyright 1998, Gaussian, Inc.),
 the Gaussian(R) 94 system (copyright 1995, Gaussian, Inc.),
 the Gaussian 92(TM) system (copyright 1992, Gaussian, Inc.),
 the Gaussian 90(TM) system (copyright 1990, Gaussian, Inc.),
 the Gaussian 88(TM) system (copyright 1988, Gaussian, Inc.),
 the Gaussian 86(TM) system (copyright 1986, Carnegie Mellon
 University), and the Gaussian 82(TM) system (copyright 1983,
 Carnegie Mellon University). Gaussian is a federally registered
 trademark of Gaussian, Inc.
  
 This software contains proprietary and confidential information,
 including trade secrets, belonging to Gaussian, Inc.
  
 This software is provided under written license and may be
 used, copied, transmitted, or stored only in accord with that
 written license.
  
 The following legend is applicable only to US Government
 contracts under FAR:
  
                    RESTRICTED RIGHTS LEGEND
  
 Use, reproduction and disclosure by the US Government is
 subject to restrictions as set forth in subparagraphs (a)
 and (c) of the Commercial Computer Software - Restricted
 Rights clause in FAR 52.227-19.
  
 Gaussian, Inc.
 340 Quinnipiac St., Bldg. 40, Wallingford CT 06492
  
  
 ---------------------------------------------------------------
 Warning -- This program may not be used in any manner that
 competes with the business of Gaussian, Inc. or will provide
 assistance to any competitor of Gaussian, Inc.  The licensee
 of this program is prohibited from giving any competitor of
 Gaussian, Inc. access to this program.  By using this program,
 the user acknowledges that Gaussian, Inc. is engaged in the
 business of creating and licensing software in the field of
 computational chemistry and represents and warrants to the
 licensee that it is not a competitor of Gaussian, Inc. and that
 it will not use this program in any manner prohibited above.
 ---------------------------------------------------------------
  

 Cite this work as:
 Gaussian 09, Revision A.02,
 M. J. Frisch, G. W. Trucks, H. B. Schlegel, G. E. Scuseria, 
 M. A. Robb, J. R. Cheeseman, G. Scalmani, V. Barone, B. Mennucci, 
 G. A. Petersson, H. Nakatsuji, M. Caricato, X. Li, H. P. Hratchian, 
 A. F. Izmaylov, J. Bloino, G. Zheng, J. L. Sonnenberg, M. Hada, 
 M. Ehara, K. Toyota, R. Fukuda, J. Hasegawa, M. Ishida, T. Nakajima, 
 Y. Honda, O. Kitao, H. Nakai, T. Vreven, J. A. Montgomery, Jr., 
 J. E. Peralta, F. Ogliaro, M. Bearpark, J. J. Heyd, E. Brothers, 
 K. N. Kudin, V. N. Staroverov, R. Kobayashi, J. Normand, 
 K. Raghavachari, A. Rendell, J. C. Burant, S. S. Iyengar, J. Tomasi, 
 M. Cossi, N. Rega, J. M. Millam, M. Klene, J. E. Knox, J. B. Cross, 
 V. Bakken, C. Adamo, J. Jaramillo, R. Gomperts, R. E. Stratmann, 
 O. Yazyev, A. J. Austin, R. Cammi, C. Pomelli, J. W. Ochterski, 
 R. L. Martin, K. Morokuma, V. G. Zakrzewski, G. A. Voth, 
 P. Salvador, J. J. Dannenberg, S. Dapprich, A. D. Daniels, 
 O. Farkas, J. B. Foresman, J. V. Ortiz, J. Cioslowski, 
 and D. J. Fox, Gaussian, Inc., Wallingford CT, 2009.
 
 ******************************************
 Gaussian 09:  IA32W-G09RevA.02 11-Jun-2009
                05-Dec-2011 
 ******************************************
 %rwf=temp.rwf
 %nosave
 %chk=temp.chk
 ----------------------------------------------------------------------
 # HF/GEN nosymm int=noraff iop(99/6=1) scf=conventional symm=noint cha
 rge
 ----------------------------------------------------------------------
 1/18=10,28=-2,38=1,125=101/1;
 2/12=2,15=1,17=6,18=5,40=1/2;
 3/5=7,16=1,25=14/1,2,3,11,14;
 4//1;
 5/5=1,29=1/2;
 6/7=2,8=2,9=2,10=2,28=1/1;
 99/5=1,6=1,9=1/99;
 -----
 title
 -----
 Symbolic Z-matrix:
 Charge =  0 Multiplicity = 1
 C
 C                    1    B1
 H                    1    B2       2    A1
 H                    1    B2       2    A2       3    D1       0
 H                    1    B2       2    A3       3    D2       0
 H                    2    B2       1    A4       5    D3       0
 H                    2    B2       1    A5       6    D4       0
 H                    2    B2       1    A6       6    D5       0
       Variables:
  B1                    1.54                     
  B2                    1.12                     
  A1                  110.72597                  
  A2                  110.73703                  
  A3                  110.69128                  
  A4                  110.71056                  
  A5                  110.70728                  
  A6                  110.73644                  
  D1                  120.                       
  D2                 -120.                       
  D3                   60.                       
  D4                  120.                       
  D5                 -120.                       
 
 Background charge distribution read from input stream:
 Point Charges:
 XYZ=   -5.2300   -6.0000   -6.0000 Q=    3.1472 A=    0.0000 R=    0.0000 C=    0.0000
 XYZ=   -5.2300   -6.0000    6.0000 Q=    4.0579 A=    0.0000 R=    0.0000 C=    0.0000
 XYZ=   -5.2300    6.0000   -6.0000 Q=   -3.7301 A=    0.0000 R=    0.0000 C=    0.0000
 XYZ=   -5.2300    6.0000    6.0000 Q=    4.1338 A=    0.0000 R=    0.0000 C=    0.0000
 XYZ=    6.7700   -6.0000   -6.0000 Q=    1.3236 A=    0.0000 R=    0.0000 C=    0.0000
 XYZ=    6.7700   -6.0000    6.0000 Q=   -4.0246 A=    0.0000 R=    0.0000 C=    0.0000
 XYZ=    6.7700    6.0000   -6.0000 Q=   -2.2150 A=    0.0000 R=    0.0000 C=    0.0000
 XYZ=    6.7700    6.0000    6.0000 Q=    0.4688 A=    0.0000 R=    0.0000 C=    0.0000
 Sum of input charges=            3.161577
              Moments=          -69.901520          -35.080372           36.661305
                          Input orientation:                          
 ---------------------------------------------------------------------
 Center     Atomic      Atomic             Coordinates (Angstroms)
 Number     Number       Type             X           Y           Z
 ---------------------------------------------------------------------
      1          6           0        0.000000    0.000000    0.000000
      2          6           0        0.000000    0.000000    1.540000
      3          1           0        1.047518    0.000000   -0.396367
      4          1           0       -0.523721   -0.907111   -0.396569
      5          1           0       -0.523879    0.907385   -0.395732
      6          1           0       -1.047624    0.000000    1.936085
      7          1           0        0.523824   -0.907289    1.936025
      8          1           0        0.523723    0.907114    1.936558
 ---------------------------------------------------------------------
                    Distance matrix (angstroms):
                    1          2          3          4          5
     1  C    0.000000
     2  C    1.540000   0.000000
     3  H    1.120000   2.201547   0.000000
     4  H    1.120000   2.201688   1.814288   0.000000
     5  H    1.120000   2.201103   1.814562   1.814496   0.000000
     6  H    2.201350   1.120000   3.135275   2.557068   2.556370
     7  H    2.201308   1.120000   2.556850   2.557018   3.134934
     8  H    2.201681   1.120000   2.557295   3.135607   2.556765
                    6          7          8
     6  H    0.000000
     7  H    1.814558   0.000000
     8  H    1.814384   1.814403   0.000000
 Symmetry turned off by external request.
 Stoichiometry    C2H6
 Framework group  C1[X(C2H6)]
 Deg. of freedom    18
 Full point group                 C1      NOp   1
 Rotational constants (GHZ):     76.1575333     19.6100577     19.6093369
 General basis read from cards:  (5D, 7F)
 Integral buffers will be    262144 words long.
 Regular integral format.
 Two-electron integral symmetry is turned off.
    16 basis functions,    48 primitive gaussians,    16 cartesian basis functions
     9 alpha electrons        9 beta electrons
       nuclear repulsion energy        41.5312076742 Hartrees.
 NAtoms=    8 NActive=    8 NUniq=    8 SFac= 7.50D-01 NAtFMM=   80 NAOKFM=F Big=F
 FoFCou: FMM=F IPFlag=           0 FMFlag=      100000 FMFlg1=           0
         NFxFlg=           0 DoJE=F BraDBF=T KetDBF=T FulRan=T
         Omega=  0.000000  0.000000  1.000000  0.000000  0.000000 ICntrl=    1100 IOpCl=  0
         NMat0=    1 NMatS0=    1 NMatT0=    0 NMatD0=    1 NMtDS0=    0 NMtDT0=    0
         I1Cent=    10001006 NGrid=          16.
 Symmetry not used in FoFCou.
 Self energy of the charges =        -1.3116745804 a.u.
 MM   energy of the charges =         0.0000000000 a.u.
 Nuclei-charges interaction =         3.6670660551 a.u.
 Nuclear repulsion after external point charges =       43.8865991489 Hartrees.
 One-electron integrals computed using PRISM.
 NBasis=    16 RedAO= T  NBF=    16
 NBsUse=    16 1.00D-06 NBFU=    16
 Out2e will use a cutoff of  1.00D-10
         7751 integrals produced for a total of         7751.
 Phoenix requires     262306 words of memory.
 Out2e will use a cutoff of  1.00D-10
 Phenix exits -- no d or f functions.
            0 integrals produced for a total of         7751.
 PHOENIX SHELL PASSES=       0  NUMBER PROCESSED=       0
          FAST PASSES=       0
 Harris functional with IExCor=  205 diagonalized for initial guess.
 ExpMin= 1.86D-01 ExpMax= 7.16D+01 ExpMxC= 7.16D+01 IAcc=1 IRadAn=         1 AccDes= 0.00D+00
 HarFok:  IExCor=  205 AccDes= 0.00D+00 IRadAn=         1 IDoV= 1
 ScaDFX=  1.000000  1.000000  1.000000  1.000000
 FoFCou: FMM=F IPFlag=           0 FMFlag=      100000 FMFlg1=           0
         NFxFlg=           0 DoJE=T BraDBF=F KetDBF=T FulRan=T
         Omega=  0.000000  0.000000  1.000000  0.000000  0.000000 ICntrl=     500 IOpCl=  0
         NMat0=    1 NMatS0=    1 NMatT0=    0 NMatD0=    1 NMtDS0=    0 NMtDT0=    0
         I1Cent=           4 NGrid=           0.
 Symmetry not used in FoFCou.
 Requested convergence on RMS density matrix=1.00D-08 within 128 cycles.
 Requested convergence on MAX density matrix=1.00D-06.
 Requested convergence on             energy=1.00D-06.
 No special actions if energy rises.
 Two-electron integrals will be kept in memory, NGetB=      150780.
 SCF Done:  E(RHF) =  -79.5679778407     A.U. after    9 cycles
             Convg  =    0.1344D-08             -V/T =  2.0130

 **********************************************************************

            Population analysis using the SCF density.

 **********************************************************************

 Alpha  occ. eigenvalues --  -11.16135 -11.13676  -1.14428  -0.96974  -0.73773
 Alpha  occ. eigenvalues --   -0.73309  -0.63497  -0.62374  -0.61859
 Alpha virt. eigenvalues --    0.48392   0.49276   0.54709   0.56429   0.60142
 Alpha virt. eigenvalues --    0.62875   0.63422
          Condensed to atoms (all electrons):
              1          2          3          4          5          6
     1  C    4.609940   0.353709   0.368001   0.361404   0.366052  -0.016568
     2  C    0.353709   4.615387  -0.014423  -0.016676  -0.015670   0.357271
     3  H    0.368001  -0.014423   0.629963  -0.016618  -0.015327   0.001092
     4  H    0.361404  -0.016676  -0.016618   0.717265  -0.017682  -0.001395
     5  H    0.366052  -0.015670  -0.015327  -0.017682   0.660921  -0.001409
     6  H   -0.016568   0.357271   0.001092  -0.001395  -0.001409   0.756082
     7  H   -0.014858   0.365769  -0.001412  -0.001414   0.001068  -0.018896
     8  H   -0.014278   0.366621  -0.001407   0.001088  -0.001417  -0.018406
              7          8
     1  C   -0.014858  -0.014278
     2  C    0.365769   0.366621
     3  H   -0.001412  -0.001407
     4  H   -0.001414   0.001088
     5  H    0.001068  -0.001417
     6  H   -0.018896  -0.018406
     7  H    0.671293  -0.016283
     8  H   -0.016283   0.663275
 Mulliken atomic charges:
              1
     1  C   -0.013402
     2  C   -0.011989
     3  H    0.050131
     4  H   -0.025971
     5  H    0.023464
     6  H   -0.057770
     7  H    0.014732
     8  H    0.020806
 Sum of Mulliken atomic charges =   0.00000
 Mulliken charges with hydrogens summed into heavy atoms:
              1
     1  C    0.034221
     2  C   -0.034221
 Sum of Mulliken charges with hydrogens summed into heavy atoms =   0.00000
 Electronic spatial extent (au):  <R**2>=            146.3509
 Charge=              0.0000 electrons
 Dipole moment (field-independent basis, Debye):
    X=              0.5559    Y=              0.2096    Z=             -0.3102  Tot=              0.6702
 Quadrupole moment (field-independent basis, Debye-Ang):
   XX=            -13.2750   YY=            -13.1625   ZZ=            -14.1522
   XY=             -0.0868   XZ=              0.5519   YZ=             -0.0189
 Traceless Quadrupole moment (field-independent basis, Debye-Ang):
   XX=              0.2549   YY=              0.3674   ZZ=             -0.6223
   XY=             -0.0868   XZ=              0.5519   YZ=             -0.0189
 Octapole moment (field-independent basis, Debye-Ang**2):
  XXX=              0.9562  YYY=              0.3199  ZZZ=            -32.8415  XYY=              0.1745
  XXY=              0.1065  XXZ=            -10.8523  XZZ=              1.3975  YZZ=              0.1777
  YYZ=            -10.0159  XYZ=              0.0749
 Hexadecapole moment (field-independent basis, Debye-Ang**3):
 XXXX=            -23.5026 YYYY=            -23.2311 ZZZZ=           -130.9979 XXXY=             -0.0706
 XXXZ=             -0.0197 YYYX=             -0.1316 YYYZ=             -0.0387 ZZZX=              2.7412
 ZZZY=              0.1840 XXYY=             -7.7610 XXZZ=            -25.2481 YYZZ=            -23.8321
 XXYZ=             -0.0130 YYXZ=              1.1476 ZZXY=              0.0210
 N-N= 4.388659914894D+01 E-N=-2.699383956609D+02  KE= 7.854976986351D+01

 Test job not archived.
 1|1|UNPC-TESLA|SP|RHF|Gen|C2H6|MATTEUS|05-Dec-2011|0||# HF/GEN nosymm 
 int=noraff iop(99/6=1) scf=conventional symm=noint charge||title||0,1|
 C|C,1,1.54|H,1,1.12,2,110.72597|H,1,1.12,2,110.73703,3,120.,0|H,1,1.12
 ,2,110.69128,3,-120.,0|H,2,1.12,1,110.71056,5,60.,0|H,2,1.12,1,110.707
 28,6,120.,0|H,2,1.12,1,110.73644,6,-120.,0||Version=IA32W-G09RevA.02|H
 F=-79.5679778|RMSD=1.344e-009|Dipole=0.2187193,0.0824472,-0.1220547|Qu
 adrupole=0.1895193,0.2731635,-0.4626828,-0.0645399,0.4103377,-0.014040
 2|PG=C01 [X(C2H6)]||@
 OUTPUT MATRIX WITH NLAB=SINT   NBasis= 16   NNV= 500
 END GP1OUT,    1  RECORDS WRITTEN.
 OUTPUT MATRIX WITH NLAB=TINT   NBasis= 16   NNV= 500
 END GP1OUT,    1  RECORDS WRITTEN.
 OUTPUT MATRIX WITH NLAB=VINT   NBasis= 16   NNV= 500
 END GP1OUT,    1  RECORDS WRITTEN.
 GP2OUT PROCESSED       7751 TWO-ELECTRON INTEGRALS.


 THE WISE MAN HAS THE POWER TO REASON AWAY
 WHAT A FOOL BELIEVES.
                     - DOOBIE BROTHERS
 Job cpu time:  0 days  0 hours  0 minutes  2.0 seconds.
 File lengths (MBytes):  RWF=      5 Int=      2 D2E=      0 Chk=      1 Scr=      1
 Normal termination of Gaussian 09 at Mon Dec 05 11:30:10 2011.
